# vtk DataFile Version 3.0
vtk output
ASCII
DATASET UNSTRUCTURED_GRID
POINTS 4100 float
29.047375110000004 0.0 15.0
-29.047375110000004 0.0 15.0
23.05548861 0.0 15.0
-23.05548861 0.0 15.0
26.048325 0.0 15.0
-26.048325 0.0 15.0
20.07115371 0.0 15.0
-20.07115371 0.0 15.0
16.68855438 11.15093553 15.0
-16.68855438 11.15093553 15.0
16.68855438 -11.15093553 15.0
-16.68855438 -11.15093553 15.0
0.0 29.047375110000004 15.0
0.0 -29.047375110000004 15.0
19.68549213 3.9156878400000004 15.0
-19.68549213 3.9156878400000004 15.0
19.68549213 -3.9156878400000004 15.0
-19.68549213 -3.9156878400000004 15.0
4.4979027 22.61248386 15.0
-4.4979027 22.61248386 15.0
4.4979027 -22.61248386 15.0
-4.4979027 -22.61248386 15.0
25.54781373 5.08177611 15.0
-25.54781373 5.08177611 15.0
25.54781373 -5.08177611 15.0
-25.54781373 -5.08177611 15.0
9.968262419999999 24.06551433 15.0
-9.968262419999999 24.06551433 15.0
9.968262419999999 -24.06551433 15.0
-9.968262419999999 -24.06551433 15.0
24.1520097 16.13785695 15.0
-24.1520097 16.13785695 15.0
24.1520097 -16.13785695 15.0
-24.1520097 -16.13785695 15.0
21.65839068 14.471673990000001 15.0
-21.65839068 14.471673990000001 15.0
21.65839068 -14.471673990000001 15.0
-21.65839068 -14.471673990000001 15.0
22.61248386 4.4979027 15.0
-22.61248386 4.4979027 15.0
22.61248386 -4.4979027 15.0
-22.61248386 -4.4979027 15.0
12.80894319 19.169938199999997 15.0
-12.80894319 19.169938199999997 15.0
12.80894319 -19.169938199999997 15.0
-12.80894319 -19.169938199999997 15.0
14.471673990000001 21.65839068 15.0
-14.471673990000001 21.65839068 15.0
14.471673990000001 -21.65839068 15.0
-14.471673990000001 -21.65839068 15.0
20.53959591 20.53959591 15.0
-20.53959591 20.53959591 15.0
20.53959591 -20.53959591 15.0
-20.53959591 -20.53959591 15.0
16.13785695 24.1520097 15.0
-16.13785695 24.1520097 15.0
16.13785695 -24.1520097 15.0
-16.13785695 -24.1520097 15.0
0.0 23.05548861 15.0
0.0 -23.05548861 15.0
0.0 26.048325 15.0
0.0 -26.048325 15.0
0.0 20.07115371 15.0
0.0 -20.07115371 15.0
3.9156878400000004 19.68549213 15.0
-3.9156878400000004 19.68549213 15.0
3.9156878400000004 -19.68549213 15.0
-3.9156878400000004 -19.68549213 15.0
19.169938199999997 12.80894319 15.0
-19.169938199999997 12.80894319 15.0
19.169938199999997 -12.80894319 15.0
-19.169938199999997 -12.80894319 15.0
24.06551433 9.968262419999999 15.0
-24.06551433 9.968262419999999 15.0
24.06551433 -9.968262419999999 15.0
-24.06551433 -9.968262419999999 15.0
7.68089799 18.543328109999997 15.0
-7.68089799 18.543328109999997 15.0
7.68089799 -18.543328109999997 15.0
-7.68089799 -18.543328109999997 15.0
11.15093553 16.68855438 15.0
-11.15093553 16.68855438 15.0
11.15093553 -16.68855438 15.0
-11.15093553 -16.68855438 15.0
11.1159492 26.83627533 15.0
-11.1159492 26.83627533 15.0
11.1159492 -26.83627533 15.0
-11.1159492 -26.83627533 15.0
21.30049404 8.82295353 15.0
-21.30049404 8.82295353 15.0
21.30049404 -8.82295353 15.0
-21.30049404 -8.82295353 15.0
18.543328109999997 7.68089799 15.0
-18.543328109999997 7.68089799 15.0
18.543328109999997 -7.68089799 15.0
-18.543328109999997 -7.68089799 15.0
8.82295353 21.30049404 15.0
-8.82295353 21.30049404 15.0
8.82295353 -21.30049404 15.0
-8.82295353 -21.30049404 15.0
26.83627533 11.1159492 15.0
-26.83627533 11.1159492 15.0
26.83627533 -11.1159492 15.0
-26.83627533 -11.1159492 15.0
18.41894724 18.41894724 15.0
-18.41894724 18.41894724 15.0
18.41894724 -18.41894724 15.0
-18.41894724 -18.41894724 15.0
5.08177611 25.54781373 15.0
-5.08177611 25.54781373 15.0
5.08177611 -25.54781373 15.0
-5.08177611 -25.54781373 15.0
28.48923792 5.66686176 15.0
-28.48923792 5.66686176 15.0
28.48923792 -5.66686176 15.0
-28.48923792 -5.66686176 15.0
14.192448899999999 14.192448899999999 15.0
-14.192448899999999 14.192448899999999 15.0
14.192448899999999 -14.192448899999999 15.0
-14.192448899999999 -14.192448899999999 15.0
5.66686176 28.48923792 15.0
-5.66686176 28.48923792 15.0
5.66686176 -28.48923792 15.0
-5.66686176 -28.48923792 15.0
16.30269234 16.30269234 15.0
-16.30269234 16.30269234 15.0
16.30269234 -16.30269234 15.0
-16.30269234 -16.30269234 15.0
0.0 0.0 -51.0
0.0 0.0 -54.0
0.0 0.0 -57.0
0.0 0.0 -60.0
21.457424189999998 0.0 -34.59768777
-21.457424189999998 0.0 -34.59768777
0.0 21.457424189999998 -34.59768777
0.0 -21.457424189999998 -34.59768777
19.824075030000003 8.21140074 -34.59768777
-19.824075030000003 8.21140074 -34.59768777
19.824075030000003 -8.21140074 -34.59768777
-19.824075030000003 -8.21140074 -34.59768777
15.17269014 15.17269014 -34.59768777
-15.17269014 15.17269014 -34.59768777
15.17269014 -15.17269014 -34.59768777
-15.17269014 -15.17269014 -34.59768777
8.21140074 19.824075030000003 -34.59768777
-8.21140074 19.824075030000003 -34.59768777
8.21140074 -19.824075030000003 -34.59768777
-8.21140074 -19.824075030000003 -34.59768777
17.84119617 11.92110615 -34.59768777
-17.84119617 11.92110615 -34.59768777
17.84119617 -11.92110615 -34.59768777
-17.84119617 -11.92110615 -34.59768777
21.04512579 4.1861358 -34.59768777
-21.04512579 4.1861358 -34.59768777
21.04512579 -4.1861358 -34.59768777
-21.04512579 -4.1861358 -34.59768777
4.1861358 21.04512579 -34.59768777
-4.1861358 21.04512579 -34.59768777
4.1861358 -21.04512579 -34.59768777
-4.1861358 -21.04512579 -34.59768777
11.92110615 17.84119617 -34.59768777
-11.92110615 17.84119617 -34.59768777
11.92110615 -17.84119617 -34.59768777
-11.92110615 -17.84119617 -34.59768777
20.72081403 0.0 -27.24710667
-20.72081403 0.0 -27.24710667
11.51186748 17.22872721 -27.24710667
-11.51186748 17.22872721 -27.24710667
11.51186748 -17.22872721 -27.24710667
-11.51186748 -17.22872721 -27.24710667
0.0 20.72081403 -27.24710667
0.0 -20.72081403 -27.24710667
7.9295122199999994 19.14353598 -27.24710667
-7.9295122199999994 19.14353598 -27.24710667
7.9295122199999994 -19.14353598 -27.24710667
-7.9295122199999994 -19.14353598 -27.24710667
19.14353598 7.9295122199999994 -27.24710667
-19.14353598 7.9295122199999994 -27.24710667
19.14353598 -7.9295122199999994 -27.24710667
-19.14353598 -7.9295122199999994 -27.24710667
17.22872721 11.51186748 -27.24710667
-17.22872721 11.51186748 -27.24710667
17.22872721 -11.51186748 -27.24710667
-17.22872721 -11.51186748 -27.24710667
4.04243028 20.32266939 -27.24710667
-4.04243028 20.32266939 -27.24710667
4.04243028 -20.32266939 -27.24710667
-4.04243028 -20.32266939 -27.24710667
14.651828100000001 14.651828100000001 -27.24710667
-14.651828100000001 14.651828100000001 -27.24710667
14.651828100000001 -14.651828100000001 -27.24710667
-14.651828100000001 -14.651828100000001 -27.24710667
20.32266939 4.04243028 -27.24710667
-20.32266939 4.04243028 -27.24710667
20.32266939 -4.04243028 -27.24710667
-20.32266939 -4.04243028 -27.24710667
7.21069869 0.0 -47.89927425
-7.21069869 0.0 -47.89927425
5.99547684 4.00604955 -47.89927425
-5.99547684 4.00604955 -47.89927425
5.99547684 -4.00604955 -47.89927425
-5.99547684 -4.00604955 -47.89927425
1.40673753 7.07214714 -47.89927425
-1.40673753 7.07214714 -47.89927425
1.40673753 -7.07214714 -47.89927425
-1.40673753 -7.07214714 -47.89927425
4.00604955 5.99547684 -47.89927425
-4.00604955 5.99547684 -47.89927425
4.00604955 -5.99547684 -47.89927425
-4.00604955 -5.99547684 -47.89927425
7.07214714 1.40673753 -47.89927425
-7.07214714 1.40673753 -47.89927425
7.07214714 -1.40673753 -47.89927425
-7.07214714 -1.40673753 -47.89927425
2.75941494 6.66181695 -47.89927425
-2.75941494 6.66181695 -47.89927425
2.75941494 -6.66181695 -47.89927425
-2.75941494 -6.66181695 -47.89927425
6.66181695 2.75941494 -47.89927425
-6.66181695 2.75941494 -47.89927425
6.66181695 -2.75941494 -47.89927425
-6.66181695 -2.75941494 -47.89927425
5.09873394 5.09873394 -47.89927425
-5.09873394 5.09873394 -47.89927425
5.09873394 -5.09873394 -47.89927425
-5.09873394 -5.09873394 -47.89927425
0.0 7.21069869 -47.89927425
0.0 -7.21069869 -47.89927425
14.719950390000001 0.0 -52.28089749
-14.719950390000001 0.0 -52.28089749
10.40857674 10.40857674 -52.28089749
-10.40857674 10.40857674 -52.28089749
10.40857674 -10.40857674 -52.28089749
-10.40857674 -10.40857674 -52.28089749
0.0 14.719950390000001 -52.28089749
0.0 -14.719950390000001 -52.28089749
12.23919144 8.17796625 -52.28089749
-12.23919144 8.17796625 -52.28089749
12.23919144 -8.17796625 -52.28089749
-12.23919144 -8.17796625 -52.28089749
8.17796625 12.23919144 -52.28089749
-8.17796625 12.23919144 -52.28089749
8.17796625 -12.23919144 -52.28089749
-8.17796625 -12.23919144 -52.28089749
13.59946089 5.63308113 -52.28089749
-13.59946089 5.63308113 -52.28089749
13.59946089 -5.63308113 -52.28089749
-13.59946089 -5.63308113 -52.28089749
2.87171985 14.43711066 -52.28089749
-2.87171985 14.43711066 -52.28089749
2.87171985 -14.43711066 -52.28089749
-2.87171985 -14.43711066 -52.28089749
5.63308113 13.59946089 -52.28089749
-5.63308113 13.59946089 -52.28089749
5.63308113 -13.59946089 -52.28089749
-5.63308113 -13.59946089 -52.28089749
14.43711066 2.87171985 -52.28089749
-14.43711066 2.87171985 -52.28089749
14.43711066 -2.87171985 -52.28089749
-14.43711066 -2.87171985 -52.28089749
3.09328293 0.0 -56.62469118
-3.09328293 0.0 -56.62469118
2.18728134 2.18728134 -56.62469118
-2.18728134 2.18728134 -56.62469118
2.18728134 -2.18728134 -56.62469118
-2.18728134 -2.18728134 -56.62469118
3.03384636 0.60346956 -56.62469118
-3.03384636 0.60346956 -56.62469118
3.03384636 -0.60346956 -56.62469118
-3.03384636 -0.60346956 -56.62469118
2.85782079 1.1837481300000001 -56.62469118
-2.85782079 1.1837481300000001 -56.62469118
2.85782079 -1.1837481300000001 -56.62469118
-2.85782079 -1.1837481300000001 -56.62469118
0.60346956 3.03384636 -56.62469118
-0.60346956 3.03384636 -56.62469118
0.60346956 -3.03384636 -56.62469118
-0.60346956 -3.03384636 -56.62469118
1.7185359 2.57197074 -56.62469118
-1.7185359 2.57197074 -56.62469118
1.7185359 -2.57197074 -56.62469118
-1.7185359 -2.57197074 -56.62469118
2.57197074 1.7185359 -56.62469118
-2.57197074 1.7185359 -56.62469118
2.57197074 -1.7185359 -56.62469118
-2.57197074 -1.7185359 -56.62469118
0.0 3.09328293 -56.62469118
0.0 -3.09328293 -56.62469118
[...]
CELL_DATA 3072
FIELD stress-strain 6
E11 1 3072 float
-1.1102230246251563e-16
0.0
-5.551115123125783e-17
1.1102230246251563e-16
2.220446049250313e-16
2.220446049250313e-16
-5.551115123125783e-17
2.220446049250313e-16
-1.1102230246251563e-16
0.0
-5.551115123125783e-17
1.1102230246251563e-16
2.220446049250313e-16
2.220446049250313e-16
-5.551115123125783e-17
2.220446049250313e-16
-1.1102230246251563e-16
0.0
-5.551115123125783e-17
1.1102230246251563e-16
2.220446049250313e-16
2.220446049250313e-16
-5.551115123125783e-17
2.220446049250313e-16
-1.1102230246251563e-16
0.0
-5.551115123125783e-17
1.1102230246251563e-16
2.220446049250313e-16
2.220446049250313e-16
-5.551115123125783e-17
2.220446049250313e-16
2.220446049250313e-16
2.220446049250313e-16
1.1102230246251563e-16
3.3306690738754696e-16
1.1102230246251563e-16
1.1102230246251563e-16
-1.1102230246251563e-16
3.3306690738754696e-16
2.220446049250313e-16
2.220446049250313e-16
1.1102230246251563e-16
3.3306690738754696e-16
1.1102230246251563e-16
1.1102230246251563e-16
-1.1102230246251563e-16
3.3306690738754696e-16
2.220446049250313e-16
2.220446049250313e-16
1.1102230246251563e-16
3.3306690738754696e-16
1.1102230246251563e-16
1.1102230246251563e-16
-1.1102230246251563e-16
3.3306690738754696e-16
2.220446049250313e-16
2.220446049250313e-16
1.1102230246251563e-16
3.3306690738754696e-16
1.1102230246251563e-16
1.1102230246251563e-16
-1.1102230246251563e-16
3.3306690738754696e-16
0.0
0.0
1.1102230246251563e-16
1.1102230246251563e-16
-1.6653345369377348e-16
-1.1102230246251563e-16
1.1102230246251563e-16
1.1102230246251563e-16
0.0
0.0
1.1102230246251563e-16
1.1102230246251563e-16
-1.6653345369377348e-16
-1.1102230246251563e-16
1.1102230246251563e-16
1.1102230246251563e-16
0.0
0.0
1.1102230246251563e-16
1.1102230246251563e-16
-1.6653345369377348e-16
-1.1102230246251563e-16
1.1102230246251563e-16
1.1102230246251563e-16
0.0
0.0
1.1102230246251563e-16
1.1102230246251563e-16
-1.6653345369377348e-16
-1.1102230246251563e-16
1.1102230246251563e-16
1.1102230246251563e-16
2.220446049250313e-16
-1.1102230246251563e-16
0.0
0.0
0.0
0.0
-5.551115123125783e-17
1.1102230246251563e-16
2.220446049250313e-16
-1.1102230246251563e-16
0.0
0.0
0.0
0.0
-5.551115123125783e-17
1.1102230246251563e-16
2.220446049250313e-16
-1.1102230246251563e-16
0.0
0.0
0.0
0.0
-5.551115123125783e-17
1.1102230246251563e-16
2.220446049250313e-16
-1.1102230246251563e-16
0.0
0.0
0.0
0.0
-5.551115123125783e-17
1.1102230246251563e-16
0.0
-5.551115123125783e-17
-1.6653345369377348e-16
-1.1102230246251563e-16
-5.551115123125783e-17
-1.6653345369377348e-16
-2.7755575615628914e-16
2.220446049250313e-16
0.0
-5.551115123125783e-17
-1.6653345369377348e-16
-1.1102230246251563e-16
-5.551115123125783e-17
-1.6653345369377348e-16
-2.7755575615628914e-16
2.220446049250313e-16
0.0
-5.551115123125783e-17
-1.6653345369377348e-16
-1.1102230246251563e-16
-5.551115123125783e-17
-1.6653345369377348e-16
-2.7755575615628914e-16
2.220446049250313e-16
0.0
-5.551115123125783e-17
-1.6653345369377348e-16
-1.1102230246251563e-16
-5.551115123125783e-17
-1.6653345369377348e-16
-2.7755575615628914e-16
2.220446049250313e-16
-1.1102230246251563e-16
0.0
-2.220446049250313e-16
-1.1102230246251563e-16
-1.1102230246251563e-16
0.0
3.3306690738754696e-16
0.0
-1.1102230246251563e-16
0.0
-2.220446049250313e-16
-1.1102230246251563e-16
-1.1102230246251563e-16
0.0
3.3306690738754696e-16
0.0
-1.1102230246251563e-16
0.0
-2.220446049250313e-16
-1.1102230246251563e-16
-1.1102230246251563e-16
0.0
3.3306690738754696e-16
0.0
-1.1102230246251563e-16
0.0
-2.220446049250313e-16
-1.1102230246251563e-16
-1.1102230246251563e-16
0.0
3.3306690738754696e-16
0.0
0.0
2.220446049250313e-16
-1.1102230246251563e-16
1.1102230246251563e-16
1.1102230246251563e-16
2.220446049250313e-16
0.0
0.0
0.0
2.220446049250313e-16
-1.1102230246251563e-16
1.1102230246251563e-16
1.1102230246251563e-16
2.220446049250313e-16
0.0
0.0
0.0
2.220446049250313e-16
-1.1102230246251563e-16
1.1102230246251563e-16
1.1102230246251563e-16
2.220446049250313e-16
0.0
0.0
0.0
2.220446049250313e-16
-1.1102230246251563e-16
1.1102230246251563e-16
1.1102230246251563e-16
2.220446049250313e-16
0.0
0.0
-5.551115123125783e-17
-1.1102230246251563e-16
-2.220446049250313e-16
2.220446049250313e-16
2.220446049250313e-16
0.0
0.0
-5.551115123125783e-17
-5.551115123125783e-17
-1.1102230246251563e-16
-2.220446049250313e-16
2.220446049250313e-16
2.220446049250313e-16
0.0
0.0
-5.551115123125783e-17
-5.551115123125783e-17
-1.1102230246251563e-16
-2.220446049250313e-16
2.220446049250313e-16
2.220446049250313e-16
0.0
0.0
-5.551115123125783e-17
-5.551115123125783e-17
-1.1102230246251563e-16
-2.220446049250313e-16
2.220446049250313e-16
2.220446049250313e-16
0.0
0.0
-5.551115123125783e-17
0.0
2.220446049250313e-16
1.1102230246251563e-16
-1.6653345369377348e-16
-5.551115123125783e-17
2.220446049250313e-16
1.1102230246251563e-16
0.0
0.0
2.220446049250313e-16
1.1102230246251563e-16
-1.6653345369377348e-16
-5.551115123125783e-17
2.220446049250313e-16
1.1102230246251563e-16
0.0
0.0
2.220446049250313e-16
1.1102230246251563e-16
-1.6653345369377348e-16
-5.551115123125783e-17
2.220446049250313e-16
1.1102230246251563e-16
0.0
0.0
2.220446049250313e-16
1.1102230246251563e-16
-1.6653345369377348e-16
-5.551115123125783e-17
2.220446049250313e-16
1.1102230246251563e-16
0.0
1.1102230246251563e-16
-2.220446049250313e-16
2.220446049250313e-16
-1.1102230246251563e-16
0.0
1.1102230246251563e-16
-2.220446049250313e-16
-1.1102230246251563e-16
1.1102230246251563e-16
-2.220446049250313e-16
2.220446049250313e-16
-1.1102230246251563e-16
0.0
1.1102230246251563e-16
-2.220446049250313e-16
-1.1102230246251563e-16
1.1102230246251563e-16
-2.220446049250313e-16
2.220446049250313e-16
-1.1102230246251563e-16
0.0
1.1102230246251563e-16
-2.220446049250313e-16
-1.1102230246251563e-16
1.1102230246251563e-16
-2.220446049250313e-16
2.220446049250313e-16
-1.1102230246251563e-16
0.0
1.1102230246251563e-16
-2.220446049250313e-16
-1.1102230246251563e-16
0.0
1.1102230246251563e-16
-1.1102230246251563e-16
0.0
-1.1102230246251563e-16
0.0
3.3306690738754696e-16
-3.3306690738754696e-16
0.0
1.1102230246251563e-16
-1.1102230246251563e-16
0.0
-1.1102230246251563e-16
0.0
3.3306690738754696e-16
-3.3306690738754696e-16
0.0
1.1102230246251563e-16
-1.1102230246251563e-16
0.0
-1.1102230246251563e-16
0.0
3.3306690738754696e-16
-3.3306690738754696e-16
0.0
1.1102230246251563e-16
-1.1102230246251563e-16
0.0
-1.1102230246251563e-16
0.0
3.3306690738754696e-16
-3.3306690738754696e-16
-2.220446049250313e-16
0.0
0.0
0.0
-5.551115123125783e-17
1.1102230246251563e-16
0.0
0.0
-2.220446049250313e-16
0.0
0.0
0.0
-5.551115123125783e-17
1.1102230246251563e-16
0.0
0.0
-2.220446049250313e-16
0.0
0.0
0.0
-5.551115123125783e-17
1.1102230246251563e-16
0.0
0.0
-2.220446049250313e-16
0.0
0.0
0.0
-5.551115123125783e-17
1.1102230246251563e-16
0.0
0.0
2.220446049250313e-16
-1.6653345369377348e-16
0.0
-5.551115123125783e-17
-1.1102230246251563e-16
0.0
0.0
1.1102230246251563e-16
2.220446049250313e-16
-1.6653345369377348e-16
0.0
-5.551115123125783e-17
-1.1102230246251563e-16
0.0
0.0
1.1102230246251563e-16
2.220446049250313e-16
-1.6653345369377348e-16
0.0
-5.551115123125783e-17
-1.1102230246251563e-16
0.0
0.0
1.1102230246251563e-16
2.220446049250313e-16
-1.6653345369377348e-16
0.0
-5.551115123125783e-17
-1.1102230246251563e-16
0.0
0.0
1.1102230246251563e-16
1.1102230246251563e-16
-1.1102230246251563e-16
0.0
0.0
-2.220446049250313e-16
0.0
0.0
0.0
1.1102230246251563e-16
-1.1102230246251563e-16
0.0
0.0
-2.220446049250313e-16
0.0
0.0
0.0
1.1102230246251563e-16
-1.1102230246251563e-16
0.0
0.0
-2.220446049250313e-16
0.0
0.0
0.0
1.1102230246251563e-16
-1.1102230246251563e-16
0.0
0.0
-2.220446049250313e-16
0.0
0.0
0.0
1.1102230246251563e-16
1.1102230246251563e-16
-3.3306690738754696e-16
0.0
2.220446049250313e-16
1.1102230246251563e-16
-1.1102230246251563e-16
-5.551115123125783e-17
1.1102230246251563e-16
1.1102230246251563e-16
-3.3306690738754696e-16
0.0
2.220446049250313e-16
1.1102230246251563e-16
-1.1102230246251563e-16
-5.551115123125783e-17
1.1102230246251563e-16
1.1102230246251563e-16
-3.3306690738754696e-16
0.0
2.220446049250313e-16
1.1102230246251563e-16
-1.1102230246251563e-16
-5.551115123125783e-17
1.1102230246251563e-16
1.1102230246251563e-16
-3.3306690738754696e-16
0.0
2.220446049250313e-16
1.1102230246251563e-16
-1.1102230246251563e-16
-5.551115123125783e-17
1.1102230246251563e-16
1.1102230246251563e-16
-1.1102230246251563e-16
-2.220446049250313e-16
-1.1102230246251563e-16
0.0
0.0
-1.6653345369377348e-16
1.1102230246251563e-16
1.1102230246251563e-16
-1.1102230246251563e-16
-2.220446049250313e-16
-1.1102230246251563e-16
0.0
0.0
-1.6653345369377348e-16
1.1102230246251563e-16
1.1102230246251563e-16
-1.1102230246251563e-16
-2.220446049250313e-16
-1.1102230246251563e-16
0.0
0.0
-1.6653345369377348e-16
1.1102230246251563e-16
1.1102230246251563e-16
-1.1102230246251563e-16
-2.220446049250313e-16
-1.1102230246251563e-16
0.0
0.0
-1.6653345369377348e-16
0.0
-1.1102230246251563e-16
0.0
-2.7755575615628914e-16
2.220446049250313e-16
-4.440892098500626e-16
-5.551115123125783e-17
-5.551115123125783e-17
0.0
-1.1102230246251563e-16
0.0
-2.7755575615628914e-16
2.220446049250313e-16
-4.440892098500626e-16
-5.551115123125783e-17
-5.551115123125783e-17
0.0
-1.1102230246251563e-16
0.0
-2.7755575615628914e-16
2.220446049250313e-16
-4.440892098500626e-16
-5.551115123125783e-17
-5.551115123125783e-17
0.0
-1.1102230246251563e-16
0.0
-2.7755575615628914e-16
2.220446049250313e-16
-4.440892098500626e-16
-5.551115123125783e-17
-5.551115123125783e-17
0.0
1.1102230246251563e-16
-2.220446049250313e-16
-1.1102230246251563e-16
-1.1102230246251563e-16
1.1102230246251563e-16
-2.7755575615628914e-16
-1.6653345369377348e-16
0.0
1.1102230246251563e-16
-2.220446049250313e-16
-1.1102230246251563e-16
-1.1102230246251563e-16
1.1102230246251563e-16
-2.7755575615628914e-16
-1.6653345369377348e-16
0.0
1.1102230246251563e-16
-2.220446049250313e-16
-1.1102230246251563e-16
-1.1102230246251563e-16
1.1102230246251563e-16
-2.7755575615628914e-16
-1.6653345369377348e-16
0.0
1.1102230246251563e-16
-2.220446049250313e-16
-1.1102230246251563e-16
-1.1102230246251563e-16
1.1102230246251563e-16
-2.7755575615628914e-16
-1.6653345369377348e-16
0.0
2.220446049250313e-16
0.0
-2.220446049250313e-16
-1.1102230246251563e-16
-1.1102230246251563e-16
0.0
-5.551115123125783e-17
0.0
2.220446049250313e-16
0.0
-2.220446049250313e-16
-1.1102230246251563e-16
-1.1102230246251563e-16
0.0
-5.551115123125783e-17
0.0
2.220446049250313e-16
0.0
-2.220446049250313e-16
-1.1102230246251563e-16
-1.1102230246251563e-16
0.0
-5.551115123125783e-17
0.0
2.220446049250313e-16
0.0
-2.220446049250313e-16
-1.1102230246251563e-16
-1.1102230246251563e-16
0.0
-5.551115123125783e-17
-1.1102230246251563e-16
1.1102230246251563e-16
0.0
0.0
1.1102230246251563e-16
0.0
1.1102230246251563e-16
-1.1102230246251563e-16
-1.1102230246251563e-16
1.1102230246251563e-16
0.0
0.0
1.1102230246251563e-16
0.0
1.1102230246251563e-16
-1.1102230246251563e-16
-1.1102230246251563e-16
1.1102230246251563e-16
0.0
0.0
1.1102230246251563e-16
0.0
1.1102230246251563e-16
-1.1102230246251563e-16
-1.1102230246251563e-16
1.1102230246251563e-16
0.0
0.0
1.1102230246251563e-16
0.0
1.1102230246251563e-16
-1.1102230246251563e-16
0.0
0.0
1.1102230246251563e-16
-1.1102230246251563e-16
-5.551115123125783e-17
2.220446049250313e-16
-5.551115123125783e-17
-1.1102230246251563e-16
0.0
0.0
1.1102230246251563e-16
-1.1102230246251563e-16
-5.551115123125783e-17
2.220446049250313e-16
-5.551115123125783e-17
-1.1102230246251563e-16
0.0
0.0
1.1102230246251563e-16
-1.1102230246251563e-16
-5.551115123125783e-17
2.220446049250313e-16
-5.551115123125783e-17
-1.1102230246251563e-16
0.0
0.0
1.1102230246251563e-16
-1.1102230246251563e-16
-5.551115123125783e-17
2.220446049250313e-16
-5.551115123125783e-17
-1.1102230246251563e-16
0.0
1.1102230246251563e-16
0.0
0.0
0.0
-1.6653345369377348e-16
-2.220446049250313e-16
0.0
0.0
1.1102230246251563e-16
0.0
0.0
0.0
-1.6653345369377348e-16
-2.220446049250313e-16
0.0
0.0
1.1102230246251563e-16
0.0
0.0
0.0
-1.6653345369377348e-16
-2.220446049250313e-16
0.0
0.0
1.1102230246251563e-16
0.0
0.0
0.0
-1.6653345369377348e-16
-2.220446049250313e-16
0.0
1.1102230246251563e-16
0.0
0.0
-1.1102230246251563e-16
-1.1102230246251563e-16
0.0
0.0
2.220446049250313e-16
1.1102230246251563e-16
0.0
0.0
-1.1102230246251563e-16
-1.1102230246251563e-16
0.0
0.0
2.220446049250313e-16
1.1102230246251563e-16
0.0
0.0
-1.1102230246251563e-16
-1.1102230246251563e-16
0.0
0.0
2.220446049250313e-16
1.1102230246251563e-16
0.0
0.0
-1.1102230246251563e-16
-1.1102230246251563e-16
0.0
0.0
2.220446049250313e-16
-5.551115123125783e-17
-1.1102230246251563e-16
-1.1102230246251563e-16
0.0
-1.1102230246251563e-16
-1.6653345369377348e-16
0.0
-5.551115123125783e-17
-5.551115123125783e-17
-1.1102230246251563e-16
-1.1102230246251563e-16
0.0
-1.1102230246251563e-16
-1.6653345369377348e-16
0.0
-5.551115123125783e-17
-5.551115123125783e-17
-1.1102230246251563e-16
-1.1102230246251563e-16
0.0
-1.1102230246251563e-16
-1.6653345369377348e-16
0.0
-5.551115123125783e-17
-5.551115123125783e-17
-1.1102230246251563e-16
-1.1102230246251563e-16
0.0
-1.1102230246251563e-16
-1.6653345369377348e-16
0.0
-5.551115123125783e-17
1.1102230246251563e-16
0.0
-5.551115123125783e-17
-1.6653345369377348e-16
-1.6653345369377348e-16
3.3306690738754696e-16
0.0
1.1102230246251563e-16
1.1102230246251563e-16
0.0
-5.551115123125783e-17
-1.6653345369377348e-16
-1.6653345369377348e-16
3.3306690738754696e-16
0.0
1.1102230246251563e-16
1.1102230246251563e-16
0.0
-5.551115123125783e-17
-1.6653345369377348e-16
-1.6653345369377348e-16
3.3306690738754696e-16
0.0
1.1102230246251563e-16
1.1102230246251563e-16
0.0
-5.551115123125783e-17
-1.6653345369377348e-16
-1.6653345369377348e-16
3.3306690738754696e-16
0.0
1.1102230246251563e-16
-5.551115123125783e-17
2.220446049250313e-16
1.1102230246251563e-16
-2.220446049250313e-16
-2.220446049250313e-16
0.0
0.0
-4.440892098500626e-16
-5.551115123125783e-17
2.220446049250313e-16
1.1102230246251563e-16
-2.220446049250313e-16
-2.220446049250313e-16
0.0
0.0
-4.440892098500626e-16
-5.551115123125783e-17
2.220446049250313e-16
1.1102230246251563e-16
-2.220446049250313e-16
-2.220446049250313e-16
0.0
0.0
-4.440892098500626e-16
-5.551115123125783e-17
2.220446049250313e-16
1.1102230246251563e-16
-2.220446049250313e-16
-2.220446049250313e-16
0.0
0.0
-4.440892098500626e-16
-1.1102230246251563e-16
0.0
2.220446049250313e-16
0.0
-5.551115123125783e-17
2.220446049250313e-16
-5.551115123125783e-17
-5.551115123125783e-17
-1.1102230246251563e-16
0.0
2.220446049250313e-16
0.0
-5.551115123125783e-17
2.220446049250313e-16
-5.551115123125783e-17
-5.551115123125783e-17
-1.1102230246251563e-16
0.0
2.220446049250313e-16
0.0
-5.551115123125783e-17
2.220446049250313e-16
-5.551115123125783e-17
-5.551115123125783e-17
-1.1102230246251563e-16
0.0
2.220446049250313e-16
0.0
-5.551115123125783e-17
2.220446049250313e-16
-5.551115123125783e-17
-5.551115123125783e-17
2.220446049250313e-16
1.1102230246251563e-16
-1.1102230246251563e-16
-2.220446049250313e-16
-1.1102230246251563e-16
1.1102230246251563e-16
2.220446049250313e-16
3.3306690738754696e-16
2.220446049250313e-16
1.1102230246251563e-16
-1.1102230246251563e-16
-2.220446049250313e-16
-1.1102230246251563e-16
1.1102230246251563e-16
2.220446049250313e-16
3.3306690738754696e-16
2.220446049250313e-16
1.1102230246251563e-16
-1.1102230246251563e-16
-2.220446049250313e-16
-1.1102230246251563e-16
1.1102230246251563e-16
2.220446049250313e-16
3.3306690738754696e-16
2.220446049250313e-16
1.1102230246251563e-16
-1.1102230246251563e-16
-2.220446049250313e-16
-1.1102230246251563e-16
1.1102230246251563e-16
2.220446049250313e-16
3.3306690738754696e-16
-1.6653345369377348e-16
-2.220446049250313e-16
0.0
-5.551115123125783e-17
2.220446049250313e-16
0.0
-2.220446049250313e-16
-1.1102230246251563e-16
-1.6653345369377348e-16
-2.220446049250313e-16
0.0
-5.551115123125783e-17
2.220446049250313e-16
0.0
-2.220446049250313e-16
-1.1102230246251563e-16
-1.6653345369377348e-16
-2.220446049250313e-16
0.0
-5.551115123125783e-17
2.220446049250313e-16
0.0
-2.220446049250313e-16
-1.1102230246251563e-16
-1.6653345369377348e-16
-2.220446049250313e-16
0.0
-5.551115123125783e-17
2.220446049250313e-16
0.0
-2.220446049250313e-16
-1.1102230246251563e-16
-1.1102230246251563e-16
-1.6653345369377348e-16
1.1102230246251563e-16
0.0
0.0
0.0
-2.220446049250313e-16
-1.1102230246251563e-16
-1.1102230246251563e-16
-1.6653345369377348e-16
1.1102230246251563e-16
0.0
0.0
0.0
-2.220446049250313e-16
-1.1102230246251563e-16
-1.1102230246251563e-16
-1.6653345369377348e-16
1.1102230246251563e-16
0.0
0.0
0.0
-2.220446049250313e-16
-1.1102230246251563e-16
-1.1102230246251563e-16
-1.6653345369377348e-16
1.1102230246251563e-16
0.0
0.0
0.0
-2.220446049250313e-16
-1.1102230246251563e-16
0.0
3.3306690738754696e-16
-2.7755575615628914e-16
1.1102230246251563e-16
2.220446049250313e-16
-2.7755575615628914e-16
1.1102230246251563e-16
0.0
0.0
3.3306690738754696e-16
-2.7755575615628914e-16
1.1102230246251563e-16
2.220446049250313e-16
-2.7755575615628914e-16
1.1102230246251563e-16
0.0
0.0
3.3306690738754696e-16
-2.7755575615628914e-16
1.1102230246251563e-16
2.220446049250313e-16
-2.7755575615628914e-16
1.1102230246251563e-16
0.0
0.0
3.3306690738754696e-16
-2.7755575615628914e-16
1.1102230246251563e-16
2.220446049250313e-16
-2.7755575615628914e-16
1.1102230246251563e-16
0.0
2.220446049250313e-16
4.440892098500626e-16
0.0
0.0
0.0
0.0
-1.1102230246251563e-16
1.1102230246251563e-16
2.220446049250313e-16
4.440892098500626e-16
0.0
0.0
0.0
0.0
-1.1102230246251563e-16
1.1102230246251563e-16
2.220446049250313e-16
4.440892098500626e-16
0.0
0.0
0.0
0.0
-1.1102230246251563e-16
1.1102230246251563e-16
2.220446049250313e-16
4.440892098500626e-16
0.0
0.0
0.0
0.0
-1.1102230246251563e-16
1.1102230246251563e-16
0.0
0.0
-5.551115123125783e-17
1.1102230246251563e-16
1.1102230246251563e-16
1.1102230246251563e-16
-1.1102230246251563e-16
0.0
0.0
0.0
-5.551115123125783e-17
1.1102230246251563e-16
1.1102230246251563e-16
1.1102230246251563e-16
-1.1102230246251563e-16
0.0
0.0
0.0
-5.551115123125783e-17
1.1102230246251563e-16
1.1102230246251563e-16
1.1102230246251563e-16
-1.1102230246251563e-16
0.0
0.0
0.0
-5.551115123125783e-17
1.1102230246251563e-16
1.1102230246251563e-16
1.1102230246251563e-16
-1.1102230246251563e-16
0.0
2.220446049250313e-16
2.220446049250313e-16
0.0
0.0
0.0
1.1102230246251563e-16
2.220446049250313e-16
2.220446049250313e-16
2.220446049250313e-16
2.220446049250313e-16
0.0
0.0
0.0
1.1102230246251563e-16
2.220446049250313e-16
2.220446049250313e-16
2.220446049250313e-16
2.220446049250313e-16
0.0
0.0
0.0
1.1102230246251563e-16
2.220446049250313e-16
2.220446049250313e-16
2.220446049250313e-16
2.220446049250313e-16
0.0
0.0
0.0
1.1102230246251563e-16
2.220446049250313e-16
2.220446049250313e-16
-5.551115123125783e-17
-1.6653345369377348e-16
2.220446049250313e-16
1.1102230246251563e-16
1.1102230246251563e-16
-5.551115123125783e-17
-2.220446049250313e-16
-1.6653345369377348e-16
-5.551115123125783e-17
-1.6653345369377348e-16
2.220446049250313e-16
1.1102230246251563e-16
1.1102230246251563e-16
-5.551115123125783e-17
-2.220446049250313e-16
-1.6653345369377348e-16
-5.551115123125783e-17
-1.6653345369377348e-16
2.220446049250313e-16
1.1102230246251563e-16
1.1102230246251563e-16
-5.551115123125783e-17
-2.220446049250313e-16
-1.6653345369377348e-16
-5.551115123125783e-17
-1.6653345369377348e-16
2.220446049250313e-16
1.1102230246251563e-16
1.1102230246251563e-16
-5.551115123125783e-17
-2.220446049250313e-16
-1.6653345369377348e-16
1.1102230246251563e-16
0.0
1.1102230246251563e-16
2.220446049250313e-16
2.220446049250313e-16
2.220446049250313e-16
0.0
0.0
1.1102230246251563e-16
0.0
1.1102230246251563e-16
2.220446049250313e-16
2.220446049250313e-16
2.220446049250313e-16
0.0
0.0
1.1102230246251563e-16
0.0
1.1102230246251563e-16
2.220446049250313e-16
2.220446049250313e-16
2.220446049250313e-16
0.0
0.0